# Trace file generated by Jist/Swans Version 1.0.6. at Sun Oct 05 16:38:56 GMT-03:00 2008
V -t * -v 1.0a5 -a 0W -t * -x 410 -y 410
A -t * -n 1 -p 0 -o 0xffffffff -c 31 -a 1
A -t * -h 1 -m 2147483647 -s 0
n -t 0.0 -s 1 -S UP -v circle -c red -x 6.3806095 -y 4.620557 -z 4
n -t 0.0 -s 2 -S UP -v circle -c red -x 8.497555 -y 1.7981648 -z 4
n -t 0.0 -s 3 -S UP -v circle -c red -x 3.6461215 -y 9.043266 -z 4
n -t 0.0 -s 4 -S UP -v circle -c red -x 7.9180484 -y 1.2098402 -z 4
n -t 0.0 -s 5 -S UP -v circle -c red -x 5.8384705 -y 2.8483558 -z 4
n -t 0.0 -s 6 -S UP -v circle -c red -x 1.9816154 -y 0.5109781 -z 4
n -t 0.0 -s 7 -S UP -v circle -c red -x 8.882079 -y 5.7782197 -z 4
n -t 0.0 -s 8 -S UP -v circle -c red -x 6.3340883 -y 5.2806835 -z 4
n -t 0.0 -s 9 -S UP -v circle -c blue -x 4.2651696 -y 4.8968897 -z 4
n -t 0.0 -s 10 -S UP -v circle -c blue -x 0.33279896 -y 8.084301 -z 4
n -t 0.0 -s 11 -S UP -v circle -c blue -x 8.446516 -y 8.884139 -z 4
n -t 0.0 -s 12 -S UP -v circle -c blue -x 1.5705776 -y 4.7391253 -z 4
n -t 0.0 -s 13 -S UP -v circle -c blue -x 9.697259 -y 6.6128836 -z 4
n -t 0.0 -s 14 -S UP -v circle -c blue -x 8.268176 -y 0.26263058 -z 4
n -t 0.0 -s 15 -S UP -v circle -c blue -x 5.2037187 -y 1.8017775 -z 4
n -t 0.0 -s 16 -S UP -v circle -c blue -x 5.6896906 -y 4.8891616 -z 4
n -t 0.0 -s 17 -S UP -v circle -c blue -x 5.431715 -y 7.3368335 -z 4
n -t 0.0 -s 18 -S UP -v circle -c blue -x 7.8784657 -y 2.7339518 -z 4
n -t 0.0 -s 19 -S UP -v circle -c blue -x 8.47586 -y 6.8777075 -z 4
n -t 0.0 -s 20 -S UP -v circle -c blue -x 7.8047714 -y 3.7727761 -z 4
n -t 0.0 -s 21 -S UP -v circle -c blue -x 7.757919 -y 9.842257 -z 4
n -t 0.0 -s 22 -S UP -v circle -c blue -x 6.221227 -y 3.6061263 -z 4
n -t 0.0 -s 23 -S UP -v circle -c blue -x 6.7719326 -y 4.314708 -z 4
n -t 0.0 -s 24 -S UP -v circle -c blue -x 8.553301 -y 9.33408 -z 4
n -t 0.0 -s 25 -S UP -v circle -c blue -x 3.2819986 -y 2.14709 -z 4
n -t 0.0 -s 26 -S UP -v circle -c blue -x 6.58273 -y 5.1590686 -z 4
n -t 0.0 -s 27 -S UP -v circle -c blue -x 7.549387 -y 1.1005408 -z 4
n -t 0.0 -s 28 -S UP -v circle -c blue -x 6.739668 -y 8.966694 -z 4
n -t 0.0 -s 29 -S UP -v circle -c blue -x 8.7930765 -y 0.6640965 -z 4
n -t 0.0 -s 30 -S UP -v circle -c blue -x 3.8897693 -y 4.0490446 -z 4
n -t 0.0 -s 31 -S UP -v circle -c blue -x 6.572262 -y 4.8360534 -z 4
n -t 0.0 -s 32 -S UP -v circle -c blue -x 0.6260848 -y 5.80137 -z 4
n -t 0.0 -s 33 -S UP -v circle -c blue -x 8.427571 -y 6.0809603 -z 4
n -t 0.0 -s 34 -S UP -v circle -c blue -x 9.449948 -y 6.1433735 -z 4
n -t 0.0 -s 35 -S UP -v circle -c blue -x 7.6424747 -y 7.58867 -z 4
n -t 0.0 -s 36 -S UP -v circle -c blue -x 3.703494 -y 2.624042 -z 4
n -t 0.0 -s 37 -S UP -v circle -c blue -x 0.0068604946 -y 4.3470926 -z 4
n -t 0.0 -s 38 -S UP -v circle -c blue -x 2.708726 -y 0.72826624 -z 4
n -t 0.0 -s 39 -S UP -v circle -c blue -x 2.0063436 -y 9.164871 -z 4
n -t 0.0 -s 40 -S UP -v circle -c blue -x 4.9403276 -y 7.4102144 -z 4
n -t 0.0 -s 41 -S UP -v circle -c blue -x 4.855262 -y 5.1929836 -z 4
n -t 0.0 -s 42 -S UP -v circle -c blue -x 8.033787 -y 8.959502 -z 4
n -t 0.0 -s 43 -S UP -v circle -c blue -x 5.576286 -y 7.52536 -z 4
n -t 0.0 -s 44 -S UP -v circle -c blue -x 6.485496 -y 4.119792 -z 4
n -t 0.0 -s 45 -S UP -v circle -c blue -x 3.1494074 -y 9.719276 -z 4
n -t 0.0 -s 46 -S UP -v circle -c blue -x 2.672059 -y 3.1150703 -z 4
n -t 0.0 -s 47 -S UP -v circle -c blue -x 1.2580383 -y 6.4591885 -z 4
n -t 0.0 -s 48 -S UP -v circle -c blue -x 7.5930123 -y 8.617147 -z 4
n -t 0.0 -s 49 -S UP -v circle -c blue -x 9.906739 -y 6.7665534 -z 4
n -t 0.0 -s 50 -S UP -v circle -c blue -x 7.971971 -y 6.460885 -z 4
n -t 0.0 -s 51 -S UP -v circle -c blue -x 3.1366448 -y 7.0881915 -z 4
n -t 0.0 -s 52 -S UP -v circle -c blue -x 2.139151 -y 2.3644578 -z 4
n -t 0.0 -s 53 -S UP -v circle -c blue -x 5.0899987 -y 5.013176 -z 4
n -t 0.0 -s 54 -S UP -v circle -c blue -x 9.7233 -y 8.355118 -z 4
n -t 0.0 -s 55 -S UP -v circle -c blue -x 9.049818 -y 0.29065907 -z 4
n -t 0.0 -s 56 -S UP -v circle -c blue -x 8.519069 -y 5.8819966 -z 4
n -t 0.0 -s 57 -S UP -v circle -c blue -x 4.9862213 -y 4.0473146 -z 4
n -t 0.0 -s 58 -S UP -v circle -c blue -x 5.039235 -y 5.5936575 -z 4
n -t 0.0 -s 59 -S UP -v circle -c blue -x 8.165208 -y 1.7132515 -z 4
n -t 0.0 -s 60 -S UP -v circle -c blue -x 4.9383407 -y 9.877323 -z 4
n -t 0.0 -s 61 -S UP -v circle -c blue -x 1.0128671 -y 3.0206668 -z 4
n -t 0.0 -s 62 -S UP -v circle -c blue -x 2.5900478 -y 8.938635 -z 4
n -t 0.0 -s 63 -S UP -v circle -c blue -x 0.5784762 -y 9.682743 -z 4
n -t 0.0 -s 64 -S UP -v circle -c blue -x 0.15585423 -y 4.4159746 -z 4
n -t 0.0 -s 65 -S UP -v circle -c blue -x 6.4104037 -y 9.915167 -z 4
n -t 0.0 -s 66 -S UP -v circle -c blue -x 0.1950103 -y 3.273943 -z 4
n -t 0.0 -s 67 -S UP -v circle -c blue -x 6.6619754 -y 9.034254 -z 4
n -t 0.0 -s 68 -S UP -v circle -c blue -x 9.58804 -y 5.53948 -z 4
n -t 0.0 -s 69 -S UP -v circle -c blue -x 0.8997488 -y 7.9403234 -z 4
n -t 0.0 -s 70 -S UP -v circle -c blue -x 8.788997 -y 0.8961046 -z 4
n -t 0.0 -s 71 -S UP -v circle -c blue -x 4.91922 -y 0.64021885 -z 4
n -t 0.0 -s 72 -S UP -v circle -c blue -x 9.350439 -y 4.3322425 -z 4
n -t 0.0 -s 73 -S UP -v circle -c blue -x 8.314655 -y 8.127668 -z 4
n -t 0.0 -s 74 -S UP -v circle -c blue -x 4.6024327 -y 0.07579386 -z 4
n -t 0.0 -s 75 -S UP -v circle -c blue -x 8.438229 -y 7.254398 -z 4
n -t 0.0 -s 76 -S UP -v circle -c blue -x 6.2910824 -y 5.5969896 -z 4
n -t 0.0 -s 77 -S UP -v circle -c blue -x 2.4632459 -y 8.800088 -z 4
n -t 0.0 -s 78 -S UP -v circle -c blue -x 2.0280612 -y 5.2147965 -z 4
n -t 0.0 -s 79 -S UP -v circle -c blue -x 1.6872084 -y 1.1778414 -z 4
n -t 0.0 -s 80 -S UP -v circle -c blue -x 0.36124587 -y 2.0192492 -z 4
n -t 0.0 -s 81 -S UP -v circle -c blue -x 2.0295537 -y 3.267678 -z 4
n -t 0.0 -s 82 -S UP -v circle -c blue -x 8.095225 -y 0.6751174 -z 4
n -t 0.0 -s 83 -S UP -v circle -c blue -x 1.3589382 -y 8.208776 -z 4
n -t 0.0 -s 84 -S UP -v circle -c blue -x 6.772567 -y 4.9844747 -z 4
n -t 0.0 -s 85 -S UP -v circle -c blue -x 6.195053 -y 6.8380733 -z 4
n -t 0.0 -s 86 -S UP -v circle -c blue -x 5.7321577 -y 7.6714163 -z 4
n -t 0.0 -s 87 -S UP -v circle -c blue -x 7.2456017 -y 5.3559594 -z 4
n -t 0.0 -s 88 -S UP -v circle -c blue -x 9.305618 -y 5.0571566 -z 4
n -t 0.0 -s 89 -S UP -v circle -c blue -x 8.841822 -y 3.0280185 -z 4
n -t 0.0 -s 90 -S UP -v circle -c blue -x 7.069021 -y 2.494896 -z 4
n -t 0.0 -s 91 -S UP -v circle -c blue -x 1.7137158 -y 6.875153 -z 4
n -t 0.0 -s 92 -S UP -v circle -c blue -x 2.8634727 -y 3.5394669 -z 4
n -t 0.0 -s 93 -S UP -v circle -c blue -x 0.6931114 -y 6.724305 -z 4
n -t 0.0 -s 94 -S UP -v circle -c blue -x 9.919208 -y 4.7762213 -z 4
n -t 0.0 -s 95 -S UP -v circle -c blue -x 9.24918 -y 4.3308997 -z 4
n -t 0.0 -s 96 -S UP -v circle -c blue -x 2.9048662 -y 1.4976776 -z 4
n -t 0.0 -s 97 -S UP -v circle -c blue -x 5.5537233 -y 8.965997 -z 4
n -t 0.0 -s 98 -S UP -v circle -c blue -x 0.27368367 -y 6.497013 -z 4
n -t 0.0 -s 99 -S UP -v circle -c blue -x 0.7553685 -y 1.5909141 -z 4
n -t 0.0 -s 100 -S UP -v circle -c blue -x 1.745038 -y 4.177804 -z 4
n -t 0.0 -s 1 -S UP -v circle -c red -x 6.3806095 -y 4.620557 -z 4
n -t 0.0 -s 3 -S UP -v circle -c red -x 3.6461215 -y 9.043266 -z 4
n -t 0.0 -s 7 -S UP -v circle -c red -x 8.882079 -y 5.7782197 -z 4
n -t 0.0 -s 15 -S UP -v circle -c blue -x 5.2037187 -y 1.8017775 -z 4
n -t 0.0 -s 31 -S UP -v circle -c blue -x 6.572262 -y 4.8360534 -z 4
n -t 0.0 -s 63 -S UP -v circle -c blue -x 0.5784762 -y 9.682743 -z 4
n -t 0.0 -s 64 -S UP -v circle -c blue -x 0.15585423 -y 4.4159746 -z 4
n -t 0.0 -s 32 -S UP -v circle -c blue -x 0.6260848 -y 5.80137 -z 4
n -t 0.0 -s 65 -S UP -v circle -c blue -x 6.4104037 -y 9.915167 -z 4
n -t 0.0 -s 66 -S UP -v circle -c blue -x 0.1950103 -y 3.273943 -z 4
n -t 0.0 -s 16 -S UP -v circle -c blue -x 5.6896906 -y 4.8891616 -z 4
n -t 0.0 -s 33 -S UP -v circle -c blue -x 8.427571 -y 6.0809603 -z 4
n -t 0.0 -s 67 -S UP -v circle -c blue -x 6.6619754 -y 9.034254 -z 4
n -t 0.0 -s 68 -S UP -v circle -c blue -x 9.58804 -y 5.53948 -z 4
n -t 0.0 -s 34 -S UP -v circle -c blue -x 9.449948 -y 6.1433735 -z 4
n -t 0.0 -s 69 -S UP -v circle -c blue -x 0.8997488 -y 7.9403234 -z 4
n -t 0.0 -s 70 -S UP -v circle -c blue -x 8.788997 -y 0.8961046 -z 4
n -t 0.0 -s 8 -S UP -v circle -c red -x 6.3340883 -y 5.2806835 -z 4
n -t 0.0 -s 17 -S UP -v circle -c blue -x 5.431715 -y 7.3368335 -z 4
n -t 0.0 -s 35 -S UP -v circle -c blue -x 7.6424747 -y 7.58867 -z 4
n -t 0.0 -s 71 -S UP -v circle -c blue -x 4.91922 -y 0.64021885 -z 4
n -t 0.0 -s 72 -S UP -v circle -c blue -x 9.350439 -y 4.3322425 -z 4
n -t 0.0 -s 36 -S UP -v circle -c blue -x 3.703494 -y 2.624042 -z 4
n -t 0.0 -s 73 -S UP -v circle -c blue -x 8.314655 -y 8.127668 -z 4
n -t 0.0 -s 74 -S UP -v circle -c blue -x 4.6024327 -y 0.07579386 -z 4
n -t 0.0 -s 18 -S UP -v circle -c blue -x 7.8784657 -y 2.7339518 -z 4
n -t 0.0 -s 37 -S UP -v circle -c blue -x 0.0068604946 -y 4.3470926 -z 4
n -t 0.0 -s 75 -S UP -v circle -c blue -x 8.438229 -y 7.254398 -z 4
n -t 0.0 -s 76 -S UP -v circle -c blue -x 6.2910824 -y 5.5969896 -z 4
n -t 0.0 -s 38 -S UP -v circle -c blue -x 2.708726 -y 0.72826624 -z 4
n -t 0.0 -s 77 -S UP -v circle -c blue -x 2.4632459 -y 8.800088 -z 4
n -t 0.0 -s 78 -S UP -v circle -c blue -x 2.0280612 -y 5.2147965 -z 4
n -t 0.0 -s 4 -S UP -v circle -c red -x 7.9180484 -y 1.2098402 -z 4
n -t 0.0 -s 9 -S UP -v circle -c blue -x 4.2651696 -y 4.8968897 -z 4
n -t 0.0 -s 19 -S UP -v circle -c blue -x 8.47586 -y 6.8777075 -z 4
n -t 0.0 -s 39 -S UP -v circle -c blue -x 2.0063436 -y 9.164871 -z 4
n -t 0.0 -s 79 -S UP -v circle -c blue -x 1.6872084 -y 1.1778414 -z 4
n -t 0.0 -s 80 -S UP -v circle -c blue -x 0.36124587 -y 2.0192492 -z 4
n -t 0.0 -s 40 -S UP -v circle -c blue -x 4.9403276 -y 7.4102144 -z 4
n -t 0.0 -s 81 -S UP -v circle -c blue -x 2.0295537 -y 3.267678 -z 4
n -t 0.0 -s 82 -S UP -v circle -c blue -x 8.095225 -y 0.6751174 -z 4
n -t 0.0 -s 20 -S UP -v circle -c blue -x 7.8047714 -y 3.7727761 -z 4
n -t 0.0 -s 41 -S UP -v circle -c blue -x 4.855262 -y 5.1929836 -z 4
n -t 0.0 -s 83 -S UP -v circle -c blue -x 1.3589382 -y 8.208776 -z 4
n -t 0.0 -s 84 -S UP -v circle -c blue -x 6.772567 -y 4.9844747 -z 4
n -t 0.0 -s 42 -S UP -v circle -c blue -x 8.033787 -y 8.959502 -z 4
n -t 0.0 -s 85 -S UP -v circle -c blue -x 6.195053 -y 6.8380733 -z 4
n -t 0.0 -s 86 -S UP -v circle -c blue -x 5.7321577 -y 7.6714163 -z 4
n -t 0.0 -s 10 -S UP -v circle -c blue -x 0.33279896 -y 8.084301 -z 4
n -t 0.0 -s 21 -S UP -v circle -c blue -x 7.757919 -y 9.842257 -z 4
n -t 0.0 -s 43 -S UP -v circle -c blue -x 5.576286 -y 7.52536 -z 4
n -t 0.0 -s 87 -S UP -v circle -c blue -x 7.2456017 -y 5.3559594 -z 4
n -t 0.0 -s 88 -S UP -v circle -c blue -x 9.305618 -y 5.0571566 -z 4
n -t 0.0 -s 44 -S UP -v circle -c blue -x 6.485496 -y 4.119792 -z 4
n -t 0.0 -s 89 -S UP -v circle -c blue -x 8.841822 -y 3.0280185 -z 4
n -t 0.0 -s 90 -S UP -v circle -c blue -x 7.069021 -y 2.494896 -z 4
n -t 0.0 -s 22 -S UP -v circle -c blue -x 6.221227 -y 3.6061263 -z 4
n -t 0.0 -s 45 -S UP -v circle -c blue -x 3.1494074 -y 9.719276 -z 4
n -t 0.0 -s 91 -S UP -v circle -c blue -x 1.7137158 -y 6.875153 -z 4
n -t 0.0 -s 92 -S UP -v circle -c blue -x 2.8634727 -y 3.5394669 -z 4
n -t 0.0 -s 46 -S UP -v circle -c blue -x 2.672059 -y 3.1150703 -z 4
n -t 0.0 -s 93 -S UP -v circle -c blue -x 0.6931114 -y 6.724305 -z 4
n -t 0.0 -s 94 -S UP -v circle -c blue -x 9.919208 -y 4.7762213 -z 4
n -t 0.0 -s 2 -S UP -v circle -c red -x 8.497555 -y 1.7981648 -z 4
n -t 0.0 -s 5 -S UP -v circle -c red -x 5.8384705 -y 2.8483558 -z 4
n -t 0.0 -s 11 -S UP -v circle -c blue -x 8.446516 -y 8.884139 -z 4
n -t 0.0 -s 23 -S UP -v circle -c blue -x 6.7719326 -y 4.314708 -z 4
n -t 0.0 -s 47 -S UP -v circle -c blue -x 1.2580383 -y 6.4591885 -z 4
n -t 0.0 -s 95 -S UP -v circle -c blue -x 9.24918 -y 4.3308997 -z 4
n -t 0.0 -s 96 -S UP -v circle -c blue -x 2.9048662 -y 1.4976776 -z 4
n -t 0.0 -s 48 -S UP -v circle -c blue -x 7.5930123 -y 8.617147 -z 4
n -t 0.0 -s 97 -S UP -v circle -c blue -x 5.5537233 -y 8.965997 -z 4
n -t 0.0 -s 98 -S UP -v circle -c blue -x 0.27368367 -y 6.497013 -z 4
n -t 0.0 -s 24 -S UP -v circle -c blue -x 8.553301 -y 9.33408 -z 4
n -t 0.0 -s 49 -S UP -v circle -c blue -x 9.906739 -y 6.7665534 -z 4
n -t 0.0 -s 99 -S UP -v circle -c blue -x 0.7553685 -y 1.5909141 -z 4
n -t 0.0 -s 100 -S UP -v circle -c blue -x 1.745038 -y 4.177804 -z 4
n -t 0.0 -s 50 -S UP -v circle -c blue -x 7.971971 -y 6.460885 -z 4
n -t 0.0 -s 12 -S UP -v circle -c blue -x 1.5705776 -y 4.7391253 -z 4
n -t 0.0 -s 25 -S UP -v circle -c blue -x 3.2819986 -y 2.14709 -z 4
n -t 0.0 -s 51 -S UP -v circle -c blue -x 3.1366448 -y 7.0881915 -z 4
n -t 0.0 -s 52 -S UP -v circle -c blue -x 2.139151 -y 2.3644578 -z 4
n -t 0.0 -s 26 -S UP -v circle -c blue -x 6.58273 -y 5.1590686 -z 4
n -t 0.0 -s 53 -S UP -v circle -c blue -x 5.0899987 -y 5.013176 -z 4
n -t 0.0 -s 54 -S UP -v circle -c blue -x 9.7233 -y 8.355118 -z 4
n -t 0.0 -s 6 -S UP -v circle -c red -x 1.9816154 -y 0.5109781 -z 4
n -t 0.0 -s 13 -S UP -v circle -c blue -x 9.697259 -y 6.6128836 -z 4
n -t 0.0 -s 27 -S UP -v circle -c blue -x 7.549387 -y 1.1005408 -z 4
n -t 0.0 -s 55 -S UP -v circle -c blue -x 9.049818 -y 0.29065907 -z 4
n -t 0.0 -s 56 -S UP -v circle -c blue -x 8.519069 -y 5.8819966 -z 4
n -t 0.0 -s 28 -S UP -v circle -c blue -x 6.739668 -y 8.966694 -z 4
n -t 0.0 -s 57 -S UP -v circle -c blue -x 4.9862213 -y 4.0473146 -z 4
n -t 0.0 -s 58 -S UP -v circle -c blue -x 5.039235 -y 5.5936575 -z 4
n -t 0.0 -s 14 -S UP -v circle -c blue -x 8.268176 -y 0.26263058 -z 4
n -t 0.0 -s 29 -S UP -v circle -c blue -x 8.7930765 -y 0.6640965 -z 4
n -t 0.0 -s 59 -S UP -v circle -c blue -x 8.165208 -y 1.7132515 -z 4
n -t 0.0 -s 60 -S UP -v circle -c blue -x 4.9383407 -y 9.877323 -z 4
n -t 0.0 -s 30 -S UP -v circle -c blue -x 3.8897693 -y 4.0490446 -z 4
n -t 0.0 -s 61 -S UP -v circle -c blue -x 1.0128671 -y 3.0206668 -z 4
n -t 0.0 -s 62 -S UP -v circle -c blue -x 2.5900478 -y 8.938635 -z 4
+ -t 4.04101E-4 -s 7 -d -1 -p aodv -e 44 -i 16666 -a 0 
- -t 4.04101E-4 -s 7 -d -1 -p aodv -e 44 -i 16666 -a 0 
r -t 8.71101E-4 -s 7 -d 3 -p aodv -e 44 -i 16666 -a 0 
r -t 8.71101E-4 -s 7 -d 21 -p aodv -e 44 -i 16666 -a 0 
r -t 8.71101E-4 -s 7 -d 77 -p aodv -e 44 -i 16666 -a 0 
r -t 8.71101E-4 -s 7 -d 11 -p aodv -e 44 -i 16666 -a 0 
r -t 8.71101E-4 -s 7 -d 73 -p aodv -e 44 -i 16666 -a 0 
r -t 8.71101E-4 -s 7 -d 71 -p aodv -e 44 -i 16666 -a 0 
r -t 8.71101E-4 -s 7 -d 99 -p aodv -e 44 -i 16666 -a 0 
r -t 8.71101E-4 -s 7 -d 97 -p aodv -e 44 -i 16666 -a 0 
r -t 8.71101E-4 -s 7 -d 42 -p aodv -e 44 -i 16666 -a 0 
r -t 8.71101E-4 -s 7 -d 40 -p aodv -e 44 -i 16666 -a 0 
r -t 8.71101E-4 -s 7 -d 48 -p aodv -e 44 -i 16666 -a 0 
r -t 8.71101E-4 -s 7 -d 2 -p aodv -e 44 -i 16666 -a 0 
r -t 8.71101E-4 -s 7 -d 67 -p aodv -e 44 -i 16666 -a 0 
r -t 8.71101E-4 -s 7 -d 19 -p aodv -e 44 -i 16666 -a 0 
r -t 8.71101E-4 -s 7 -d 61 -p aodv -e 44 -i 16666 -a 0 
r -t 8.71101E-4 -s 7 -d 20 -p aodv -e 44 -i 16666 -a 0 
r -t 8.71101E-4 -s 7 -d 46 -p aodv -e 44 -i 16666 -a 0 
r -t 8.71101E-4 -s 7 -d 14 -p aodv -e 44 -i 16666 -a 0 
r -t 8.71101E-4 -s 7 -d 54 -p aodv -e 44 -i 16666 -a 0 
r -t 8.71101E-4 -s 7 -d 13 -p aodv -e 44 -i 16666 -a 0 
r -t 8.71101E-4 -s 7 -d 38 -p aodv -e 44 -i 16666 -a 0 
r -t 8.71101E-4 -s 7 -d 52 -p aodv -e 44 -i 16666 -a 0 
r -t 8.71101E-4 -s 7 -d 80 -p aodv -e 44 -i 16666 -a 0 
r -t 8.71101E-4 -s 7 -d 79 -p aodv -e 44 -i 16666 -a 0 
r -t 8.71101E-4 -s 7 -d 66 -p aodv -e 44 -i 16666 -a 0 
r -t 8.71101E-4 -s 7 -d 87 -p aodv -e 44 -i 16666 -a 0 
r -t 8.71101E-4 -s 7 -d 44 -p aodv -e 44 -i 16666 -a 0 
r -t 8.71101E-4 -s 7 -d 10 -p aodv -e 44 -i 16666 -a 0 
r -t 8.71101E-4 -s 7 -d 75 -p aodv -e 44 -i 16666 -a 0 
r -t 8.71101E-4 -s 7 -d 81 -p aodv -e 44 -i 16666 -a 0 
r -t 8.71101E-4 -s 7 -d 30 -p aodv -e 44 -i 16666 -a 0 
r -t 8.71101E-4 -s 7 -d 49 -p aodv -e 44 -i 16666 -a 0 
r -t 8.71101E-4 -s 7 -d 100 -p aodv -e 44 -i 16666 -a 0 
r -t 8.71101E-4 -s 7 -d 86 -p aodv -e 44 -i 16666 -a 0 
r -t 8.71101E-4 -s 7 -d 65 -p aodv -e 44 -i 16666 -a 0 
r -t 8.71101E-4 -s 7 -d 24 -p aodv -e 44 -i 16666 -a 0 
r -t 8.71101E-4 -s 7 -d 37 -p aodv -e 44 -i 16666 -a 0 
r -t 8.71101E-4 -s 7 -d 25 -p aodv -e 44 -i 16666 -a 0 
r -t 8.71101E-4 -s 7 -d 36 -p aodv -e 44 -i 16666 -a 0 
r -t 8.71101E-4 -s 7 -d 43 -p aodv -e 44 -i 16666 -a 0 
r -t 8.71101E-4 -s 7 -d 92 -p aodv -e 44 -i 16666 -a 0 
r -t 8.71101E-4 -s 7 -d 96 -p aodv -e 44 -i 16666 -a 0 
r -t 8.71101E-4 -s 7 -d 59 -p aodv -e 44 -i 16666 -a 0 
r -t 8.71101E-4 -s 7 -d 64 -p aodv -e 44 -i 16666 -a 0 
r -t 8.71101E-4 -s 7 -d 28 -p aodv -e 44 -i 16666 -a 0 
r -t 8.71101E-4 -s 7 -d 9 -p aodv -e 44 -i 16666 -a 0 
r -t 8.71101E-4 -s 7 -d 56 -p aodv -e 44 -i 16666 -a 0 
r -t 8.71101E-4 -s 7 -d 6 -p aodv -e 44 -i 16666 -a 0 
r -t 8.71101E-4 -s 7 -d 26 -p aodv -e 44 -i 16666 -a 0 
r -t 8.71101E-4 -s 7 -d 17 -p aodv -e 44 -i 16666 -a 0 
r -t 8.71101E-4 -s 7 -d 85 -p aodv -e 44 -i 16666 -a 0 
r -t 8.71101E-4 -s 7 -d 74 -p aodv -e 44 -i 16666 -a 0 
r -t 8.71101E-4 -s 7 -d 82 -p aodv -e 44 -i 16666 -a 0 
r -t 8.71101E-4 -s 7 -d 51 -p aodv -e 44 -i 16666 -a 0 
r -t 8.71101E-4 -s 7 -d 12 -p aodv -e 44 -i 16666 -a 0 
r -t 8.71101E-4 -s 7 -d 58 -p aodv -e 44 -i 16666 -a 0 
r -t 8.71101E-4 -s 7 -d 45 -p aodv -e 44 -i 16666 -a 0 
r -t 8.71101E-4 -s 7 -d 29 -p aodv -e 44 -i 16666 -a 0 
r -t 8.71101E-4 -s 7 -d 53 -p aodv -e 44 -i 16666 -a 0 
r -t 8.71101E-4 -s 7 -d 68 -p aodv -e 44 -i 16666 -a 0 
r -t 8.71101E-4 -s 7 -d 57 -p aodv -e 44 -i 16666 -a 0 
r -t 8.71101E-4 -s 7 -d 4 -p aodv -e 44 -i 16666 -a 0 
r -t 8.71101E-4 -s 7 -d 5 -p aodv -e 44 -i 16666 -a 0 
r -t 8.71101E-4 -s 7 -d 78 -p aodv -e 44 -i 16666 -a 0 
r -t 8.71101E-4 -s 7 -d 22 -p aodv -e 44 -i 16666 -a 0 
r -t 8.71101E-4 -s 7 -d 34 -p aodv -e 44 -i 16666 -a 0 
r -t 8.71101E-4 -s 7 -d 63 -p aodv -e 44 -i 16666 -a 0 
r -t 8.71101E-4 -s 7 -d 72 -p aodv -e 44 -i 16666 -a 0 
r -t 8.71101E-4 -s 7 -d 98 -p aodv -e 44 -i 16666 -a 0 
r -t 8.71101E-4 -s 7 -d 8 -p aodv -e 44 -i 16666 -a 0 
r -t 8.71101E-4 -s 7 -d 90 -p aodv -e 44 -i 16666 -a 0 
r -t 8.71101E-4 -s 7 -d 1 -p aodv -e 44 -i 16666 -a 0 
r -t 8.71101E-4 -s 7 -d 55 -p aodv -e 44 -i 16666 -a 0 
r -t 8.71101E-4 -s 7 -d 69 -p aodv -e 44 -i 16666 -a 0 
r -t 8.71101E-4 -s 7 -d 93 -p aodv -e 44 -i 16666 -a 0 
r -t 8.71101E-4 -s 7 -d 18 -p aodv -e 44 -i 16666 -a 0 
r -t 8.71101E-4 -s 7 -d 15 -p aodv -e 44 -i 16666 -a 0 
r -t 8.71101E-4 -s 7 -d 39 -p aodv -e 44 -i 16666 -a 0 
r -t 8.71101E-4 -s 7 -d 89 -p aodv -e 44 -i 16666 -a 0 
r -t 8.71101E-4 -s 7 -d 83 -p aodv -e 44 -i 16666 -a 0 
r -t 8.71101E-4 -s 7 -d 84 -p aodv -e 44 -i 16666 -a 0 
r -t 8.71101E-4 -s 7 -d 32 -p aodv -e 44 -i 16666 -a 0 
r -t 8.71101E-4 -s 7 -d 16 -p aodv -e 44 -i 16666 -a 0 
r -t 8.71101E-4 -s 7 -d 62 -p aodv -e 44 -i 16666 -a 0 
r -t 8.71101E-4 -s 7 -d 95 -p aodv -e 44 -i 16666 -a 0 
r -t 8.71101E-4 -s 7 -d 23 -p aodv -e 44 -i 16666 -a 0 
r -t 8.71101E-4 -s 7 -d 35 -p aodv -e 44 -i 16666 -a 0 
r -t 8.71101E-4 -s 7 -d 94 -p aodv -e 44 -i 16666 -a 0 
r -t 8.71101E-4 -s 7 -d 88 -p aodv -e 44 -i 16666 -a 0 
r -t 8.71101E-4 -s 7 -d 31 -p aodv -e 44 -i 16666 -a 0 
r -t 8.71101E-4 -s 7 -d 70 -p aodv -e 44 -i 16666 -a 0 
r -t 8.71101E-4 -s 7 -d 47 -p aodv -e 44 -i 16666 -a 0 
r -t 8.71101E-4 -s 7 -d 27 -p aodv -e 44 -i 16666 -a 0 
r -t 8.71101E-4 -s 7 -d 41 -p aodv -e 44 -i 16666 -a 0 
r -t 8.71101E-4 -s 7 -d 76 -p aodv -e 44 -i 16666 -a 0 
r -t 8.71101E-4 -s 7 -d 50 -p aodv -e 44 -i 16666 -a 0 
r -t 8.71101E-4 -s 7 -d 91 -p aodv -e 44 -i 16666 -a 0 
r -t 8.71101E-4 -s 7 -d 33 -p aodv -e 44 -i 16666 -a 0 
r -t 8.71101E-4 -s 7 -d 60 -p aodv -e 44 -i 16666 -a 0 
+ -t 0.001822366 -s 51 -d 7 -p aodv -e 40 -i 16667 -a 0 
- -t 0.001822366 -s 51 -d 7 -p aodv -e 40 -i 16667 -a 0 
r -t 0.002257366 -s 51 -d 7 -p aodv -e 40 -i 16667 -a 0 
+ -t 0.003008145 -s 7 -d 51 -p udp -e 1052 -i 0 -a 0 
- -t 0.003008145 -s 7 -d 51 -p udp -e 1052 -i 0 -a 0 
r -t 0.011539145 -s 7 -d 51 -p udp -e 1052 -i 0 -a 0 
+ -t 0.060649768 -s 99 -d -1 -p aodv -e 44 -i 16668 -a 0 
- -t 0.060649768 -s 99 -d -1 -p aodv -e 44 -i 16668 -a 0 
r -t 0.061116766 -s 99 -d 45 -p aodv -e 44 -i 16668 -a 0 
r -t 0.061116766 -s 99 -d 21 -p aodv -e 44 -i 16668 -a 0 
r -t 0.061116766 -s 99 -d 39 -p aodv -e 44 -i 16668 -a 0 
r -t 0.061116766 -s 99 -d 11 -p aodv -e 44 -i 16668 -a 0 
r -t 0.061116766 -s 99 -d 73 -p aodv -e 44 -i 16668 -a 0 
r -t 0.061116766 -s 99 -d 96 -p aodv -e 44 -i 16668 -a 0 
r -t 0.061116766 -s 99 -d 80 -p aodv -e 44 -i 16668 -a 0 
r -t 0.061116766 -s 99 -d 97 -p aodv -e 44 -i 16668 -a 0 
r -t 0.061116766 -s 99 -d 42 -p aodv -e 44 -i 16668 -a 0 
r -t 0.061116766 -s 99 -d 10 -p aodv -e 44 -i 16668 -a 0 
r -t 0.061116766 -s 99 -d 48 -p aodv -e 44 -i 16668 -a 0 
r -t 0.061116766 -s 99 -d 5 -p aodv -e 44 -i 16668 -a 0 
r -t 0.061116766 -s 99 -d 67 -p aodv -e 44 -i 16668 -a 0 
r -t 0.061116766 -s 99 -d 19 -p aodv -e 44 -i 16668 -a 0 
r -t 0.061116766 -s 99 -d 66 -p aodv -e 44 -i 16668 -a 0 
r -t 0.061116766 -s 99 -d 95 -p aodv -e 44 -i 16668 -a 0 
r -t 0.061116766 -s 99 -d 36 -p aodv -e 44 -i 16668 -a 0 
r -t 0.061116766 -s 99 -d 82 -p aodv -e 44 -i 16668 -a 0 
r -t 0.061116766 -s 99 -d 54 -p aodv -e 44 -i 16668 -a 0 
r -t 0.061116766 -s 99 -d 13 -p aodv -e 44 -i 16668 -a 0 
r -t 0.061116766 -s 99 -d 74 -p aodv -e 44 -i 16668 -a 0 
r -t 0.061116766 -s 99 -d 38 -p aodv -e 44 -i 16668 -a 0 
r -t 0.061116766 -s 99 -d 52 -p aodv -e 44 -i 16668 -a 0 
r -t 0.061116766 -s 99 -d 79 -p aodv -e 44 -i 16668 -a 0 
r -t 0.061116766 -s 99 -d 81 -p aodv -e 44 -i 16668 -a 0 
r -t 0.061116766 -s 99 -d 85 -p aodv -e 44 -i 16668 -a 0 
r -t 0.061116766 -s 99 -d 23 -p aodv -e 44 -i 16668 -a 0 
r -t 0.061116766 -s 99 -d 69 -p aodv -e 44 -i 16668 -a 0 
r -t 0.061116766 -s 99 -d 75 -p aodv -e 44 -i 16668 -a 0 
r -t 0.061116766 -s 99 -d 37 -p aodv -e 44 -i 16668 -a 0 
r -t 0.061116766 -s 99 -d 57 -p aodv -e 44 -i 16668 -a 0 
r -t 0.061116766 -s 99 -d 49 -p aodv -e 44 -i 16668 -a 0 
r -t 0.061116766 -s 99 -d 12 -p aodv -e 44 -i 16668 -a 0 
r -t 0.061116766 -s 99 -d 86 -p aodv -e 44 -i 16668 -a 0 
r -t 0.061116766 -s 99 -d 65 -p aodv -e 44 -i 16668 -a 0 
r -t 0.061116766 -s 99 -d 24 -p aodv -e 44 -i 16668 -a 0 
r -t 0.061116766 -s 99 -d 64 -p aodv -e 44 -i 16668 -a 0 
r -t 0.061116766 -s 99 -d 61 -p aodv -e 44 -i 16668 -a 0 
r -t 0.061116766 -s 99 -d 92 -p aodv -e 44 -i 16668 -a 0 
r -t 0.061116766 -s 99 -d 43 -p aodv -e 44 -i 16668 -a 0 
r -t 0.061116766 -s 99 -d 30 -p aodv -e 44 -i 16668 -a 0 
r -t 0.061116766 -s 99 -d 25 -p aodv -e 44 -i 16668 -a 0 
r -t 0.061116766 -s 99 -d 2 -p aodv -e 44 -i 16668 -a 0 
r -t 0.061116766 -s 99 -d 100 -p aodv -e 44 -i 16668 -a 0 
r -t 0.061116766 -s 99 -d 28 -p aodv -e 44 -i 16668 -a 0 
r -t 0.061116766 -s 99 -d 15 -p aodv -e 44 -i 16668 -a 0 
r -t 0.061116766 -s 99 -d 33 -p aodv -e 44 -i 16668 -a 0 
r -t 0.061116766 -s 99 -d 6 -p aodv -e 44 -i 16668 -a 0 
r -t 0.061116766 -s 99 -d 76 -p aodv -e 44 -i 16668 -a 0 
r -t 0.061116766 -s 99 -d 56 -p aodv -e 44 -i 16668 -a 0 
r -t 0.061116766 -s 99 -d 17 -p aodv -e 44 -i 16668 -a 0 
r -t 0.061116766 -s 99 -d 71 -p aodv -e 44 -i 16668 -a 0 
r -t 0.061116766 -s 99 -d 27 -p aodv -e 44 -i 16668 -a 0 
r -t 0.061116766 -s 99 -d 40 -p aodv -e 44 -i 16668 -a 0 
r -t 0.061116766 -s 99 -d 46 -p aodv -e 44 -i 16668 -a 0 
r -t 0.061116766 -s 99 -d 8 -p aodv -e 44 -i 16668 -a 0 
r -t 0.061116766 -s 99 -d 60 -p aodv -e 44 -i 16668 -a 0 
r -t 0.061116766 -s 99 -d 59 -p aodv -e 44 -i 16668 -a 0 
r -t 0.061116766 -s 99 -d 58 -p aodv -e 44 -i 16668 -a 0 
r -t 0.061116766 -s 99 -d 7 -p aodv -e 44 -i 16668 -a 0 
r -t 0.061116766 -s 99 -d 9 -p aodv -e 44 -i 16668 -a 0 
r -t 0.061116766 -s 99 -d 55 -p aodv -e 44 -i 16668 -a 0 
r -t 0.061116766 -s 99 -d 22 -p aodv -e 44 -i 16668 -a 0 
r -t 0.061116766 -s 99 -d 98 -p aodv -e 44 -i 16668 -a 0 
r -t 0.061116766 -s 99 -d 16 -p aodv -e 44 -i 16668 -a 0 
r -t 0.061116766 -s 99 -d 34 -p aodv -e 44 -i 16668 -a 0 
r -t 0.061116766 -s 99 -d 77 -p aodv -e 44 -i 16668 -a 0 
r -t 0.061116766 -s 99 -d 94 -p aodv -e 44 -i 16668 -a 0 
r -t 0.061116766 -s 99 -d 93 -p aodv -e 44 -i 16668 -a 0 
r -t 0.061116766 -s 99 -d 26 -p aodv -e 44 -i 16668 -a 0 
r -t 0.061116766 -s 99 -d 14 -p aodv -e 44 -i 16668 -a 0 
r -t 0.061116766 -s 99 -d 84 -p aodv -e 44 -i 16668 -a 0 
r -t 0.061116766 -s 99 -d 70 -p aodv -e 44 -i 16668 -a 0 
r -t 0.061116766 -s 99 -d 83 -p aodv -e 44 -i 16668 -a 0 
r -t 0.061116766 -s 99 -d 47 -p aodv -e 44 -i 16668 -a 0 
r -t 0.061116766 -s 99 -d 89 -p aodv -e 44 -i 16668 -a 0 
r -t 0.061116766 -s 99 -d 90 -p aodv -e 44 -i 16668 -a 0 
r -t 0.061116766 -s 99 -d 62 -p aodv -e 44 -i 16668 -a 0 
r -t 0.061116766 -s 99 -d 20 -p aodv -e 44 -i 16668 -a 0 
r -t 0.061116766 -s 99 -d 63 -p aodv -e 44 -i 16668 -a 0 
r -t 0.061116766 -s 99 -d 31 -p aodv -e 44 -i 16668 -a 0 
r -t 0.061116766 -s 99 -d 78 -p aodv -e 44 -i 16668 -a 0 
r -t 0.061116766 -s 99 -d 44 -p aodv -e 44 -i 16668 -a 0 
r -t 0.061116766 -s 99 -d 3 -p aodv -e 44 -i 16668 -a 0 
r -t 0.061116766 -s 99 -d 72 -p aodv -e 44 -i 16668 -a 0 
r -t 0.061116766 -s 99 -d 1 -p aodv -e 44 -i 16668 -a 0 
r -t 0.061116766 -s 99 -d 35 -p aodv -e 44 -i 16668 -a 0 
r -t 0.061116766 -s 99 -d 32 -p aodv -e 44 -i 16668 -a 0 
r -t 0.061116766 -s 99 -d 68 -p aodv -e 44 -i 16668 -a 0 
r -t 0.061116766 -s 99 -d 18 -p aodv -e 44 -i 16668 -a 0 
r -t 0.061116766 -s 99 -d 29 -p aodv -e 44 -i 16668 -a 0 
r -t 0.061116766 -s 99 -d 91 -p aodv -e 44 -i 16668 -a 0 
r -t 0.061116766 -s 99 -d 4 -p aodv -e 44 -i 16668 -a 0 
r -t 0.061116766 -s 99 -d 51 -p aodv -e 44 -i 16668 -a 0 
r -t 0.061116766 -s 99 -d 87 -p aodv -e 44 -i 16668 -a 0 
r -t 0.061116766 -s 99 -d 50 -p aodv -e 44 -i 16668 -a 0 
r -t 0.061116766 -s 99 -d 41 -p aodv -e 44 -i 16668 -a 0 
r -t 0.061116766 -s 99 -d 88 -p aodv -e 44 -i 16668 -a 0 
r -t 0.061116766 -s 99 -d 53 -p aodv -e 44 -i 16668 -a 0 
+ -t 0.061701182 -s 80 -d 99 -p aodv -e 40 -i 16669 -a 0 
- -t 0.061701182 -s 80 -d 99 -p aodv -e 40 -i 16669 -a 0 
r -t 0.062136184 -s 80 -d 99 -p aodv -e 40 -i 16669 -a 0 
+ -t 0.062977895 -s 99 -d 80 -p udp -e 1052 -i 1 -a 0 
- -t 0.062977895 -s 99 -d 80 -p udp -e 1052 -i 1 -a 0 
r -t 0.0715089 -s 99 -d 80 -p udp -e 1052 -i 1 -a 0 
+ -t 0.12003067 -s 85 -d 7 -p udp -e 1052 -i 2 -a 0 
- -t 0.12003067 -s 85 -d 7 -p udp -e 1052 -i 2 -a 0 
r -t 0.12856168 -s 85 -d 7 -p udp -e 1052 -i 2 -a 0 
+ -t 0.18006006 -s 66 -d -1 -p aodv -e 44 -i 16670 -a 0 
- -t 0.18006006 -s 66 -d -1 -p aodv -e 44 -i 16670 -a 0 
r -t 0.18052708 -s 66 -d 34 -p aodv -e 44 -i 16670 -a 0 
r -t 0.18052708 -s 66 -d 24 -p aodv -e 44 -i 16670 -a 0 
r -t 0.18052708 -s 66 -d 58 -p aodv -e 44 -i 16670 -a 0 
r -t 0.18052708 -s 66 -d 73 -p aodv -e 44 -i 16670 -a 0 
r -t 0.18052708 -s 66 -d 69 -p aodv -e 44 -i 16670 -a 0 
r -t 0.18052708 -s 66 -d 28 -p aodv -e 44 -i 16670 -a 0 
r -t 0.18052708 -s 66 -d 39 -p aodv -e 44 -i 16670 -a 0 
r -t 0.18052708 -s 66 -d 19 -p aodv -e 44 -i 16670 -a 0 
r -t 0.18052708 -s 66 -d 76 -p aodv -e 44 -i 16670 -a 0 
r -t 0.18052708 -s 66 -d 2 -p aodv -e 44 -i 16670 -a 0 
r -t 0.18052708 -s 66 -d 15 -p aodv -e 44 -i 16670 -a 0 
r -t 0.18052708 -s 66 -d 52 -p aodv -e 44 -i 16670 -a 0 
r -t 0.18052708 -s 66 -d 6 -p aodv -e 44 -i 16670 -a 0 
r -t 0.18052708 -s 66 -d 99 -p aodv -e 44 -i 16670 -a 0 
r -t 0.18052708 -s 66 -d 92 -p aodv -e 44 -i 16670 -a 0 
r -t 0.18052708 -s 66 -d 96 -p aodv -e 44 -i 16670 -a 0 
r -t 0.18052708 -s 66 -d 57 -p aodv -e 44 -i 16670 -a 0 
r -t 0.18052708 -s 66 -d 61 -p aodv -e 44 -i 16670 -a 0 
r -t 0.18052708 -s 66 -d 46 -p aodv -e 44 -i 16670 -a 0 
r -t 0.18052708 -s 66 -d 74 -p aodv -e 44 -i 16670 -a 0 
r -t 0.18052708 -s 66 -d 14 -p aodv -e 44 -i 16670 -a 0 
r -t 0.18052708 -s 66 -d 37 -p aodv -e 44 -i 16670 -a 0 
r -t 0.18052708 -s 66 -d 93 -p aodv -e 44 -i 16670 -a 0 
r -t 0.18052708 -s 66 -d 62 -p aodv -e 44 -i 16670 -a 0 
r -t 0.18052708 -s 66 -d 51 -p aodv -e 44 -i 16670 -a 0 
r -t 0.18052708 -s 66 -d 1 -p aodv -e 44 -i 16670 -a 0 
r -t 0.18052708 -s 66 -d 55 -p aodv -e 44 -i 16670 -a 0 
r -t 0.18052708 -s 66 -d 27 -p aodv -e 44 -i 16670 -a 0 
r -t 0.18052708 -s 66 -d 44 -p aodv -e 44 -i 16670 -a 0 
r -t 0.18052708 -s 66 -d 31 -p aodv -e 44 -i 16670 -a 0 
r -t 0.18052708 -s 66 -d 22 -p aodv -e 44 -i 16670 -a 0 
r -t 0.18052708 -s 66 -d 91 -p aodv -e 44 -i 16670 -a 0 
r -t 0.18052708 -s 66 -d 95 -p aodv -e 44 -i 16670 -a 0 
r -t 0.18052708 -s 66 -d 89 -p aodv -e 44 -i 16670 -a 0 
r -t 0.18052708 -s 66 -d 78 -p aodv -e 44 -i 16670 -a 0 
r -t 0.18052708 -s 66 -d 10 -p aodv -e 44 -i 16670 -a 0 
r -t 0.18052708 -s 66 -d 97 -p aodv -e 44 -i 16670 -a 0 
r -t 0.18052708 -s 66 -d 75 -p aodv -e 44 -i 16670 -a 0 
r -t 0.18052708 -s 66 -d 68 -p aodv -e 44 -i 16670 -a 0 
r -t 0.18052708 -s 66 -d 98 -p aodv -e 44 -i 16670 -a 0 
r -t 0.18052708 -s 66 -d 50 -p aodv -e 44 -i 16670 -a 0 
r -t 0.18052708 -s 66 -d 25 -p aodv -e 44 -i 16670 -a 0 
r -t 0.18052708 -s 66 -d 90 -p aodv -e 44 -i 16670 -a 0 
r -t 0.18052708 -s 66 -d 47 -p aodv -e 44 -i 16670 -a 0 
r -t 0.18052708 -s 66 -d 83 -p aodv -e 44 -i 16670 -a 0 
r -t 0.18052708 -s 66 -d 70 -p aodv -e 44 -i 16670 -a 0 
r -t 0.18052708 -s 66 -d 23 -p aodv -e 44 -i 16670 -a 0 
r -t 0.18052708 -s 66 -d 41 -p aodv -e 44 -i 16670 -a 0 
r -t 0.18052708 -s 66 -d 8 -p aodv -e 44 -i 16670 -a 0 
r -t 0.18052708 -s 66 -d 85 -p aodv -e 44 -i 16670 -a 0 
r -t 0.18052708 -s 66 -d 80 -p aodv -e 44 -i 16670 -a 0 
r -t 0.18052708 -s 66 -d 88 -p aodv -e 44 -i 16670 -a 0 
r -t 0.18052708 -s 66 -d 21 -p aodv -e 44 -i 16670 -a 0 
r -t 0.18052708 -s 66 -d 56 -p aodv -e 44 -i 16670 -a 0 